LAMMPS data file via write_data, version 23 Jun 2022, timestep = 0

43 atoms
3 atom types

0 6 xlo xhi
0 6 ylo yhi
-0.5 0.5 zlo zhi

Masses

1 1
2 1
3 1

Atoms # atomic

1 1 0.6189041317528599 3.921742370315708 0 0 0 0
2 1 2.5687796736922017 3.479975744839746 0 0 0 0
3 1 3.037567825539768 4.402443846875077 0 0 0 0
4 1 1.8545552593909926 5.51024458441429 0 0 0 0
5 1 5.033328238424532 1.1477032011131305 0 0 0 0
6 1 5.512528622295954 3.068554928092544 0 0 0 0
7 1 1.3831185742202767 2.0738769201905827 0 0 0 0
8 1 4.110942717693254 2.6142562705158516 0 0 0 0
9 1 4.405681753720009 0.29323477218543864 0 0 0 0
10 1 5.288540063094599 0.4928404309287855 0 0 0 0
11 1 1.4438760007935931 3.2239453379176304 0 0 0 0
12 1 4.090671747033797 3.9200523970276357 0 0 0 0
13 1 4.943428376197549 2.2007187522019813 0 0 0 0
14 1 2.7547234644902514 2.6372676876547128 0 0 0 0
15 1 2.7499192872782796 5.893461286040703 0 0 0 0
16 1 0.42915766147391765 0.8528163921333924 0 0 0 0
17 1 4.044458660317799 1.2167039612385928 0 0 0 0
18 1 0.4101578623103713 5.523191850410398 0 0 0 0
19 1 3.295803220614699 0.5647288712508646 0 0 0 0
20 2 1.911606342490579 4.36779823916396 0 0 0 0
21 2 4.736852533527116 4.280530990232029 0 0 0 0
22 2 3.318009089360949 1.7787648894725205 0 0 0 0
23 2 4.415973571322846 5.267813223073172 0 0 0 0
24 2 0.0900981529104049 2.279655965175319 0 0 0 0
25 2 1.0848519946843629 5.10747466008527 0 0 0 0
26 2 2.247315375249514 0.6295118185828961 0 0 0 0
27 2 2.3244927405959426 1.7494911960090935 0 0 0 0
28 2 1.215976498655964 0.9170129107856252 0 0 0 0
29 2 0.4306273695224092 1.5541995631317604 0 0 0 0
30 2 0.7691143102800073 2.504212876085291 0 0 0 0
31 2 3.4069705612058616 2.9542221869128857 0 0 0 0
32 3 5.190200448590424 3.6989394592581966 0 0 0 0
33 3 5.985381214872646 0.3020783645576231 0 0 0 0
34 3 5.4772894445235325 4.8036941070126815 0 0 0 0
35 3 2.822106120559436 1.1375682424463183 0 0 0 0
36 3 1.0352821205906952 5.986600767814834 0 0 0 0
37 3 3.602416965925329 5.821946307002541 0 0 0 0
38 3 0.15734696116174895 4.530376245514665 0 0 0 0
39 3 3.2792095305766957 3.6745804025207556 0 0 0 0
40 3 2.453553231644236 4.8691642446765515 0 0 0 0
41 3 5.415931613843856 5.562633873691146 0 0 0 0
42 3 0.5667410728366771 3.217211166032223 0 0 0 0
43 3 4.032719522729851 1.917018520607156 0 0 0 0

Velocities

1 -1.0323736560327776 -0.8452490200619704 0
2 0.6304322259961208 -0.10874298075447293 0
3 1.3333200250628723 -0.23971191329283953 0
4 1.3145480380854626 0.4195979973972597 0
5 -0.05651756263796235 -0.7891967488160141 0
6 -0.24076670155506277 -0.8458437516323366 0
7 -0.6917307266075499 -1.9095690262978917 0
8 0.6083813971448772 0.9995784110866585 0
9 0.21283943672825323 0.8972962391651168 0
10 -0.04801289053032151 -0.6034824632619826 0
11 -0.38368393645514376 -0.4050650740558598 0
12 -1.4942414892959324 0.5260714613322548 0
13 -0.08516760997244475 0.9627892773049324 0
14 -0.13232475461803125 -0.18728155143401273 0
15 -0.4994513948780986 0.20059346421648352 0
16 -0.4513157281105334 0.6836631209545531 0
17 -1.410313237471252 0.15505474946907416 0
18 0.5319251761511278 0.30758086522203953 0
19 0.2954572809230044 -0.02607639341146092 0
20 0.8929273771519838 0.3150889786066756 0
21 0.9127929306596166 0.990816152414663 0
22 0.48019247435946844 0.1811609199810934 0
23 0.6427914332977528 0.8128562759283865 0
24 -0.9118946378270876 -0.29731814396029654 0
25 -0.7277119909932943 -0.8301210603785567 0
26 0.4737549941202296 -0.4910824791402611 0
27 1.621105505121878 -0.5445013060439039 0
28 -0.6500674278289058 1.045129114655896 0
29 0.6359630528730642 0.7998171955229941 0
30 -0.9075600686655854 -0.15208421177962012 0
31 0.03885140078383944 -0.46803515519706046 0
32 0.09701369582854315 0.6005175359457822 0
33 0.49547792455017764 -0.2937690408448135 0
34 0.7808173897445777 0.2841174941177136 0
35 0.02117029375392297 -0.2161159543114424 0
36 0.002921958402165833 -0.5570724489387295 0
37 -0.5165605761609963 0.23604354252174342 0
38 -0.24980166159862022 0.036538711353524635 0
39 -0.07860049850518802 -0.5139910811185738 0
40 -0.3376907557934869 0.487166447320732 0
41 -0.23347819298943598 -0.8325279117185053 0
42 0.6699436760879879 0.8558212112509599 0
43 -1.553362188299216 -0.6404614493179326 0
