LAMMPS data file via write_data, version 23 Jun 2022, timestep = 0

43 atoms
3 atom types

0 6 xlo xhi
0 6 ylo yhi
-0.5 0.5 zlo zhi

Masses

1 1
2 1
3 1

Atoms # atomic

1 1 0.23390754416301268 1.284094747753858 0 0 0 0
2 1 5.611363224504219 2.1817142424088507 0 0 0 0
3 1 1.4481503886394904 3.06358186391349 0 0 0 0
4 1 2.289469083905904 1.1068932065306667 0 0 0 0
5 1 4.13115845719872 0.3801901388821146 0 0 0 0
6 1 4.148069907980072 2.6109434210746283 0 0 0 0
7 1 4.992967550173852 0.8056157719370052 0 0 0 0
8 1 3.776232732355703 5.1435327023004795 0 0 0 0
9 1 0.4490106685315309 4.522306009438963 0 0 0 0
10 1 5.591781492154944 3.0715386481357454 0 0 0 0
11 1 2.4452680304857286 3.6197883736434333 0 0 0 0
12 1 2.172234013756846 4.737069211312136 0 0 0 0
13 1 2.995629302689633 1.5416903046619566 0 0 0 0
14 1 4.858165357661511 3.1851662170072865 0 0 0 0
15 1 0.4123538063896605 0.4304239910237603 0 0 0 0
16 1 4.040010451357817 4.45565597082286 0 0 0 0
17 1 1.226253050019151 5.635011671872349 0 0 0 0
18 1 3.130048165624052 4.719519643448069 0 0 0 0
19 1 3.3793523355291004 0.7747032375888447 0 0 0 0
20 2 4.613915710064544 2.0813390547788417 0 0 0 0
21 2 4.917600206526742 0.10667109494408178 0 0 0 0
22 2 2.5718095417003193 0.40296735726435085 0 0 0 0
23 2 0.5821194511754995 3.681615906619288 0 0 0 0
24 2 3.944644121427389 3.6337488301255503 0 0 0 0
25 2 5.012462088378362 4.450319375121183 0 0 0 0
26 2 1.3375596671074441 4.365325074813014 0 0 0 0
27 2 5.473749870189349 5.3140682723904344 0 0 0 0
28 2 1.4879774514064088 0.43702578751231813 0 0 0 0
29 2 0.9129595257867871 2.110749898529961 0 0 0 0
30 2 2.321312490068987 2.2990205894685447 0 0 0 0
31 2 3.0924570928758275 2.926359964034688 0 0 0 0
32 3 5.079761512149014 1.551734688483055 0 0 0 0
33 3 1.662966399296637 1.4762729785760271 0 0 0 0
34 3 5.807106220073582 4.034240776688904 0 0 0 0
35 3 0.30447081397495734 5.240970477108364 0 0 0 0
36 3 0.7659243982126585 2.8913607601501794 0 0 0 0
37 3 3.1226188545686284 5.85508873493182 0 0 0 0
38 3 4.515207872965935 5.098720938478932 0 0 0 0
39 3 5.7219366234363696 0.5888300950586937 0 0 0 0
40 3 1.9845078587459901 5.623581943858221 0 0 0 0
41 3 3.9909069659146046 1.1733761267612577 0 0 0 0
42 3 3.542215396436963 2.014167916036289 0 0 0 0
43 3 3.081094383765522 3.9533079471221697 0 0 0 0

Velocities

1 0.38277074962062285 0.7363604938444027 0
2 0.22927201421942084 0.6711401780213548 0
3 0.7765321164941016 0.40989186686974044 0
4 -1.6351975835433 0.5176256840217656 0
5 0.18306199626314984 0.6233412731825999 0
6 0.2836866188461015 -1.041267065017397 0
7 -0.788964736907102 -1.4524021801248004 0
8 0.92448140658631 -0.2352882227029051 0
9 -0.34026888075953315 -0.6841432286084188 0
10 0.1711773842384018 -0.3143632453079208 0
11 -0.7610527405913227 0.48917393088394795 0
12 -1.4394537950383937 0.5603414960757666 0
13 -0.26252405463684847 -0.1463780677132173 0
14 -0.7280731755425177 -0.4494092262358667 0
15 1.2278286895349273 -0.01057845797035623 0
16 1.0200563959025954 -0.4581393104228676 0
17 -2.0552035981436583 -0.17199156227002485 0
18 -0.33127236005982214 0.09330741426529417 0
19 0.5201897677639004 -0.13578278354668644 0
20 0.5232017269564633 1.0521622808285112 0
21 -0.06962433504327578 -0.3798260390419361 0
22 -0.8110466230703781 0.31335928570479027 0
23 0.0849777390945113 1.094653135165784 0
24 -0.14671693375288805 0.35524134548515546 0
25 0.07895981531661715 -0.3945253428848113 0
26 -0.3123113904257822 0.7764280688383225 0
27 0.15184673117801661 0.46670236881289107 0
28 -0.4446753074292481 0.2898947720526091 0
29 -0.20675758055493984 -0.5410842513320369 0
30 0.844480080335306 -0.3376335265842121 0
31 0.708379709805117 -0.1663522481587329 0
32 1.3103532575564572 0.4527200006427358 0
33 -0.4912939449804964 -0.04186052383811752 0
34 -0.8405601541295743 0.5927205913599319 0
35 0.1803196462717245 1.0545869168258393 0
36 0.7561915106577487 -0.6745554827523741 0
37 -0.01296220735971383 -0.5539238947326244 0
38 0.24468963861242385 -0.2712384809691705 0
39 0.9365994438948282 -0.017379296083000345 0
40 0.6194313580175058 -0.2799906362798191 0
41 -0.5172982845098777 -1.4119563326659772 0
42 1.3371098659002718 -0.24518189328628576 0
43 -1.3003399765878507 -0.13439980435188384 0
