LAMMPS data file via write_data, version 23 Jun 2022, timestep = 0

43 atoms
3 atom types

0 6 xlo xhi
0 6 ylo yhi
-0.5 0.5 zlo zhi

Masses

1 1
2 1
3 1

Atoms # atomic

1 1 0.42640583795793624 2.6029185590347828 0 0 0 0
2 1 4.09007144909821 5.830844993624298 0 0 0 0
3 1 1.4544270930133887 0.5561522760224307 0 0 0 0
4 1 4.651352824015241 1.2869132241638903 0 0 0 0
5 1 3.437087773083284 5.134202210760769 0 0 0 0
6 1 3.900998853100929 2.0877240673116058 0 0 0 0
7 1 5.7571385157094985 4.227033529536349 0 0 0 0
8 1 2.787128910788861 1.2756036283800394 0 0 0 0
9 1 4.551955133933553 4.7099360212264285 0 0 0 0
10 1 2.3700046643475092 4.668393688587655 0 0 0 0
11 1 1.613826351991774 3.579497925741364 0 0 0 0
12 1 3.7571716670678796 2.7842084098533766 0 0 0 0
13 1 0.6943482033416388 5.9102535629227075 0 0 0 0
14 1 5.502720219782889 0.2187338910152828 0 0 0 0
15 1 0.004231796601895148 5.123805488051756 0 0 0 0
16 1 1.0649863141891482 1.224982577015172 0 0 0 0
17 1 4.914605651476702 3.7771843689387588 0 0 0 0
18 1 4.759248956460156 2.6972112258417584 0 0 0 0
19 1 4.625245942094012 0.5085487740619801 0 0 0 0
20 2 3.8748912615118973 1.2974322304583303 0 0 0 0
21 2 0.3593422837366081 3.465762761172728 0 0 0 0
22 2 2.9371938840193645 3.417608713459973 0 0 0 0
23 2 1.5780715083601287 2.6478410086817297 0 0 0 0
24 2 3.2529747128733315 0.7459992620842528 0 0 0 0
25 2 5.216880038015954 2.102798934142477 0 0 0 0
26 2 2.7574290981318006 0.11085230117237768 0 0 0 0
27 2 5.3377405690670665 5.4057443101917135 0 0 0 0
28 2 4.051737485477579 3.5519184216633057 0 0 0 0
29 2 1.606224753710546 1.8194356131457887 0 0 0 0
30 2 2.56012253116822 1.9793813442715358 0 0 0 0
31 2 1.8920670644808872 5.971152730272689 0 0 0 0
32 3 3.3442260144950007 4.4066256174848535 0 0 0 0
33 3 0.9512905222136949 4.3398068455698935 0 0 0 0
34 3 0.18858309564580353 1.5160885190200473 0 0 0 0
35 3 2.8407632395814932 2.707767646158006 0 0 0 0
36 3 5.387588909541996 3.2068026723371834 0 0 0 0
37 3 2.284990166446655 3.829727468932852 0 0 0 0
38 3 2.0684910109585575 1.1284211804756992 0 0 0 0
39 3 0.6044315242229177 0.6806276145766619 0 0 0 0
40 3 5.421732008187907 1.0498616141499308 0 0 0 0
41 3 0.8651141891559186 1.9741771435244835 0 0 0 0
42 3 1.6445936084001298 4.6847763809770235 0 0 0 0
43 3 1.2855059529121526 5.498550594550814 0 0 0 0

Velocities

1 -0.6063008482408621 -0.29008256871613686 0
2 -1.286619036301094 1.2402906809320602 0
3 -1.0067804377192318 0.18113513992696367 0
4 -1.007367665834279 -0.23522802214884295 0
5 0.03406917053403861 1.0684688453550142 0
6 -1.3364840576384198 0.9131757701462274 0
7 0.7780518151315824 0.3902772339706117 0
8 0.7400352268461906 0.07593601824712803 0
9 0.567119401244705 0.7429243851670588 0
10 -0.1481834267986775 0.384391549029462 0
11 0.9209396364095926 0.12171103414984334 0
12 0.4453538072035329 -0.015904904793799433 0
13 0.23630849824827832 -0.6562464410501311 0
14 0.4862842978170157 -0.040967442183240985 0
15 0.0233952114707213 0.8398966591431171 0
16 -0.7865839012083903 0.38063474354365007 0
17 0.1538302293493633 0.27592730570421353 0
18 0.001766943479571379 0.9895970264113674 0
19 -0.7562340926538721 -0.725445569682538 0
20 -0.061155025147863945 0.14198339894935916 0
21 0.48510337595350855 0.1305668575664645 0
22 -0.1789049297541242 -0.6769279988650566 0
23 1.005387073185965 0.220091092495011 0
24 -0.9080732809198325 -0.08006206493390113 0
25 -0.38951621706341516 -0.1570505299398864 0
26 0.4036769474072931 -1.373850334599165 0
27 1.1443095873523041 -0.29014118123202715 0
28 -0.13374137485908494 -0.6186097420833597 0
29 -0.09516866496509083 1.5284480120361967 0
30 0.018181086667475622 -1.4996594382394652 0
31 0.344638390439033 0.27285720163096017 0
32 0.8817742685974812 -0.6047771437663522 0
33 0.7294128774128394 -0.7169739967584897 0
34 1.115521793552982 0.006277132477731193 0
35 -0.9942489847934008 0.034115599701182706 0
36 -0.8451061761142675 -1.1871110676648544 0
37 1.0770372383970714 -0.20122703891834445 0
38 -0.2961405244610098 -0.26387828644500727 0
39 -0.5608654616441308 0.8186708102783246 0
40 1.0317247020232592 -0.2500659068488794 0
41 -0.549128681116564 -1.0709083387093914 0
42 -1.0453209276055557 -0.4059171515542048 0
43 0.3680021361153624 0.6036586722711258 0
