LAMMPS data file via write_data, version 23 Jun 2022, timestep = 0

43 atoms
3 atom types

0 6 xlo xhi
0 6 ylo yhi
-0.5 0.5 zlo zhi

Masses

1 1
2 1
3 1

Atoms # atomic

1 1 5.4639143689833185 2.008799502630159 0 0 0 0
2 1 5.6965303261282525 5.5851912375470585 0 0 0 0
3 1 0.6353406471364855 4.170256422911891 0 0 0 0
4 1 1.4558854463770452 1.0666972589989645 0 0 0 0
5 1 1.843350007125805 3.1835697634069113 0 0 0 0
6 1 3.6272382231556053 2.992816576265179 0 0 0 0
7 1 3.591833896744919 1.9523025918529848 0 0 0 0
8 1 0.7570172151350497 3.188334774779312 0 0 0 0
9 1 3.4011450043884786 1.0440887571517792 0 0 0 0
10 1 2.769951879405394 0.581237166459317 0 0 0 0
11 1 2.5940009823972363 1.3745111503519636 0 0 0 0
12 1 5.361400058195647 1.0507780942371014 0 0 0 0
13 1 3.813370657066521 5.320633317027536 0 0 0 0
14 1 3.0650491440040293 4.280963275712432 0 0 0 0
15 1 1.2667248823059372 1.8450969158881794 0 0 0 0
16 1 4.744645566094968 3.2580293581159925 0 0 0 0
17 1 0.27917566908485053 0.10547030908310334 0 0 0 0
18 1 4.699733588239054 4.422417533780642 0 0 0 0
19 1 4.587009823223115 5.874098910891497 0 0 0 0
20 2 5.520422662385005 3.7436867047770352 0 0 0 0
21 2 4.05767969882939 1.422698225557198 0 0 0 0
22 2 2.5551443679980674 2.3113929435198166 0 0 0 0
23 2 1.4200073943566565 4.064276952326427 0 0 0 0
24 2 4.914411210880806 0.5092212737115199 0 0 0 0
25 2 5.120314615368989 5.127740506607918 0 0 0 0
26 2 0.33284334108831515 2.0980336713129812 0 0 0 0
27 2 2.7898665381548304 5.2869067682358 0 0 0 0
28 2 0.29659879873348344 4.936010313656186 0 0 0 0
29 2 1.5807260040104043 5.261949402867793 0 0 0 0
30 2 2.128402404546925 0.059213220169401365 0 0 0 0
31 2 5.754918132794517 2.9090578774498113 0 0 0 0
32 3 4.191620393745424 2.563957679348047 0 0 0 0
33 3 2.3510770864556902 4.552592060786017 0 0 0 0
34 3 1.9871415141910043 1.8874290082079495 0 0 0 0
35 3 0.6983603382009829 1.3422041439182144 0 0 0 0
36 3 0.8549636876466515 5.374698277271678 0 0 0 0
37 3 3.0821426860439325 3.572124340372218 0 0 0 0
38 3 3.9114477838908543 3.702903853591021 0 0 0 0
39 3 4.10725353756326 0.610205825702383 0 0 0 0
40 3 1.6280423363801289 2.507547540826512 0 0 0 0
41 3 2.3792291080482437 3.703618966836305 0 0 0 0
42 3 0.04574745523079646 0.8774800639960356 0 0 0 0
43 3 5.613285041234123 4.481688021906506 0 0 0 0

Velocities

1 -1.1707051366288916 -1.1439821898084581 0
2 -0.0155293165479418 0.5980307853501624 0
3 0.4664402670995524 0.2351933819616112 0
4 0.1456961813806456 0.5874991187333418 0
5 -1.078438601816775 0.5724157299496155 0
6 0.3849100343509408 -0.07345268508053072 0
7 0.40053658068091 0.8152060653188818 0
8 0.6436679600514527 -0.40638251552027427 0
9 -0.4135115155456292 0.19821094047859159 0
10 0.7008937525001332 0.5407041065416264 0
11 0.6351824204218146 0.5770135340543806 0
12 0.6676166946091439 -0.1872854399421913 0
13 1.2461159710986074 0.09849769677187242 0
14 0.8835661810847465 0.5224160098727216 0
15 0.23588038544515316 -0.4000236687080583 0
16 -0.14041128358211732 0.05738871873284991 0
17 0.45580455174740087 -0.31179236286456713 0
18 0.2891641795347132 0.21640427071612592 0
19 -1.878395376132158 -0.8430356542699675 0
20 -0.597269928740669 -0.4256000582138945 0
21 -0.705374596828788 0.769506335429533 0
22 -1.253020970911264 -0.49900368551804275 0
23 -1.1148822381807149 0.9457318826021035 0
24 0.20856541460406905 0.07766887893763735 0
25 -0.3933054377272815 0.8141955492840814 0
26 0.1917855774170863 0.790142579063931 0
27 -0.5729385222218725 0.16535425585079977 0
28 -0.5993078518174725 1.1630865064124416 0
29 -0.1725854492977282 0.4554996598917082 0
30 -0.42826684609728344 0.3742459873796612 0
31 1.475531715414046 0.29272951490632637 0
32 -1.2182544373458093 -0.6438419254026051 0
33 0.4789263316068364 -0.9702318809324414 0
34 0.20940278985451158 0.06949534598049341 0
35 -0.09333100549669242 -1.2102322291587668 0
36 -0.14189777946063814 -0.9712285222091603 0
37 1.1929207665239172 -0.7907435194494403 0
38 -0.6283218343901358 -1.0475176888403994 0
39 -0.15494444354836429 1.0462389618277792 0
40 0.43647289513479753 -0.014925623582157509 0
41 0.07030104537993442 -0.6126087294571205 0
42 0.042314957955030784 -0.7753329280157931 0
43 1.308995918422784 -0.655654509074408 0
