LAMMPS data file via write_data, version 23 Jun 2022, timestep = 0

43 atoms
3 atom types

0 6 xlo xhi
0 6 ylo yhi
-0.5 0.5 zlo zhi

Masses

1 1
2 1
3 1

Atoms # atomic

1 1 5.656412662778242 3.327623313911084 0 0 0 0
2 1 4.175238550722244 3.234321988762506 0 0 0 0
3 1 1.1218641629078725 3.170985992611845 0 0 0 0
4 1 3.8385430825122366 2.39358778316229 0 0 0 0
5 1 3.052125911718293 3.0801982493513256 0 0 0 0
6 1 3.45487977632083 4.1644006241878495 0 0 0 0
7 1 5.253218281666385 0.8396599669194127 0 0 0 0
8 1 2.230892899553707 0.6169627991583957 0 0 0 0
9 1 0.3160047988947503 1.0926550240687352 0 0 0 0
10 1 2.4464047450788344 4.724550539965066 0 0 0 0
11 1 4.843446109836663 1.798768024797909 0 0 0 0
12 1 1.6980275119179988 2.748392805805613 0 0 0 0
13 1 2.0133281974183994 4.007014011036146 0 0 0 0
14 1 2.1477794759663658 1.729652566709394 0 0 0 0
15 1 1.464725152340124 5.635635380463505 0 0 0 0
16 1 1.4965846294055623 1.0978664192826797 0 0 0 0
17 1 0.791345260474526 4.1397927953581295 0 0 0 0
18 1 5.518898184187197 2.121781634223546 0 0 0 0
19 1 3.2251522872714107 1.1344921705939304 0 0 0 0
20 2 3.104898086332203 2.0221369853346314 0 0 0 0
21 2 5.93040401578434 0.3002932874021555 0 0 0 0
22 2 2.6967387016381785 0.08735843286260889 0 0 0 0
23 2 1.1489162999898737 1.8362539298069915 0 0 0 0
24 2 5.633325517938158 5.301979986625715 0 0 0 0
25 2 4.051980085695153 1.6293002784388606 0 0 0 0
26 2 4.690109048360078 4.6627757878335085 0 0 0 0
27 2 4.4092014880893755 5.449410318140597 0 0 0 0
28 2 4.519934419784664 0.5377933208540981 0 0 0 0
29 2 4.925652309751908 3.438370000309483 0 0 0 0
30 2 3.2703687964334938 5.0883616577314035 0 0 0 0
31 2 0.4388783753099285 2.2288538339682176 0 0 0 0
32 3 3.9551423294260832 0.07713066417590281 0 0 0 0
33 3 1.5853338407284272 4.705861122676106 0 0 0 0
34 3 5.793559164644013 4.348880171938278 0 0 0 0
35 3 0.6197296653966091 5.796486320810619 0 0 0 0
36 3 0.400837269798311 4.871993500214067 0 0 0 0
37 3 4.607167557164639 2.665133266088149 0 0 0 0
38 3 2.7458664387212446 3.7772355879550963 0 0 0 0
39 3 5.202473594435712 5.973701680998179 0 0 0 0
40 3 0.8900235457765048 0.6257338657163707 0 0 0 0
41 3 0.2679201980437712 2.934768521662228 0 0 0 0
42 3 3.9207949190963034 4.800205251574612 0 0 0 0
43 3 4.27809696098701 3.9756233086696002 0 0 0 0

Velocities

1 0.4773317132112614 -1.5565653604452985 0
2 -0.25377407044350603 -0.4122975778939488 0
3 -0.2823627082021327 0.9467561156642559 0
4 0.5001967001794791 1.137001734311089 0
5 -0.14035587236535518 0.8606480292032952 0
6 0.23109846670266898 0.16969858415740907 0
7 0.45968836070412594 0.6555169610173653 0
8 0.23770273744734655 0.635181563718765 0
9 0.9891945802494622 0.31154661634982356 0
10 -0.15280508231704612 -0.07648422940364918 0
11 -0.27978639791404386 -0.971534455742632 0
12 1.226723195897356 0.4820835226077386 0
13 -1.4694023439994641 -0.6671640510976427 0
14 1.4108677242654812 0.5494689988409507 0
15 -1.2973610322721556 0.11760844826534642 0
16 1.3789541148351552 -0.12578179091635872 0
17 -1.0093311186728557 -0.469652056427421 0
18 -0.6469470791416747 -0.27850795870998285 0
19 0.4835495423256228 -0.46946362224164717 0
20 1.4908874744573166 -0.5703419180102548 0
21 -1.00789260596303 0.5750952111549388 0
22 -0.3877259205885149 0.5944372214398274 0
23 0.6143031936639698 -0.767807416373678 0
24 0.956201084514874 0.09710791853539247 0
25 -0.8141467471323424 0.17189305658599446 0
26 -0.38517908503756043 -1.552110184413427 0
27 -0.5415053397515149 0.5426449464226234 0
28 -0.19012414832631924 -0.2561390472426449 0
29 -0.5252813075810756 -0.10141150548371178 0
30 -1.490303773221141 -0.5338721336366498 0
31 0.1819619728997824 -0.33286699986950935 0
32 -0.24424848832604787 0.46465289235994234 0
33 0.11698329712255415 -0.0943114356741619 0
34 0.703847109335964 0.42384789973974746 0
35 0.6176272966503806 -0.4870908697503651 0
36 -0.0992061819352598 0.22117480313401763 0
37 -0.2952764010359384 0.5185851424884141 0
38 0.03057600482167862 -0.41933823047536717 0
39 1.2610934764848962 0.8419528683812919 0
40 0.23302025681741356 -0.33976528247708593 0
41 -0.007593014454549024 -0.13617553838378949 0
42 -1.0112266611037874 0.011351275237078884 0
43 -1.0699729228014745 0.29042785505391916 0
