LAMMPS data file via write_data, version 23 Jun 2022, timestep = 0

43 atoms
3 atom types

0 6 xlo xhi
0 6 ylo yhi
-0.5 0.5 zlo zhi

Masses

1 1
2 1
3 1

Atoms # atomic

1 1 5.848910956573166 4.646447125192008 0 0 0 0
2 1 2.653946775316236 0.8834527399779544 0 0 0 0
3 1 1.041745517887988 0.6169191434126902 0 0 0 0
4 1 4.648366377059541 5.093699239703687 0 0 0 0
5 1 0.8791983401771628 4.686503357573646 0 0 0 0
6 1 5.238260146807069 1.4382873864091408 0 0 0 0
7 1 1.6094812739684625 2.5517715879491396 0 0 0 0
8 1 2.8372440723875743 3.561124617960828 0 0 0 0
9 1 4.251821376500568 0.36187484504742307 0 0 0 0
10 1 0.9616072508327698 3.733064746359859 0 0 0 0
11 1 1.7611230172967178 1.194551705939021 0 0 0 0
12 1 2.578499686242314 4.844226674569876 0 0 0 0
13 1 0.11156776086965939 3.119356936365067 0 0 0 0
14 1 3.319599323589168 4.505831563149501 0 0 0 0
15 1 4.039542961884077 2.5985603856847437 0 0 0 0
16 1 5.80652223890951 0.21926935213583956 0 0 0 0
17 1 3.200915519707331 1.7871397211156503 0 0 0 0
18 1 0.08612527609156691 1.507515270964948 0 0 0 0
19 1 3.374657525389762 5.869029225720572 0 0 0 0
20 2 4.187771686440228 3.8787340009020337 0 0 0 0
21 2 5.486777186154749 2.264167702879835 0 0 0 0
22 2 3.882405690794068 1.592445175904988 0 0 0 0
23 2 2.2883175193743397 5.752548124525951 0 0 0 0
24 2 0.8833003010988703 1.628160568712354 0 0 0 0
25 2 2.0590037973872404 3.676822687348734 0 0 0 0
26 2 2.622284566342032 2.736706510529251 0 0 0 0
27 2 5.203384925240364 3.29043851480374 0 0 0 0
28 2 0.7810909574763343 5.795722304748242 0 0 0 0
29 2 0.5288414342928871 2.2379861605530538 0 0 0 0
30 2 5.505162851654535 5.2720477577634375 0 0 0 0
31 2 2.5133591333932053 2.026954939601456 0 0 0 0
32 3 4.994589912236942 4.072654966298796 0 0 0 0
33 3 1.522200977207255 5.63182392233602 0 0 0 0
34 3 4.786023781069566 2.7016884361867275 0 0 0 0
35 3 4.062516129604782 4.708590267556063 0 0 0 0
36 3 1.6988613939373107 4.763447904383506 0 0 0 0
37 3 4.629964668597078 1.8161851110943523 0 0 0 0
38 3 5.020409700004575 0.02582797688703424 0 0 0 0
39 3 3.604045103119707 3.186048132919729 0 0 0 0
40 3 0.8251879824442734 2.934420940901349 0 0 0 0
41 3 0.1569511257842887 3.8775710565399244 0 0 0 0
42 3 4.743792486723415 0.9203243604490181 0 0 0 0
43 3 3.4246866439584114 0.7084250090217334 0 0 0 0

Velocities

1 0.7417170408814306 -0.6342636919350433 0
2 0.029707778079906124 -0.4619415391738786 0
3 0.08002047849515073 -0.10221528230461017 0
4 0.2209286179463343 0.5321091053439176 0
5 0.32459038712970145 0.8855404098066987 0
6 -1.055529265911307 0.8076354629007575 0
7 0.013948459420257834 -0.47092858135448157 0
8 -1.0735806701997876 -0.061238538816914136 0
9 -0.4382467468403243 -0.4414434148838945 0
10 0.15971834672088517 0.1255730551036271 0
11 0.18249449707490006 -0.7636153044120415 0
12 1.082555482099249 -0.16837684613431575 0
13 0.7787056745240091 -0.6415892757109586 0
14 -0.6445874177222054 0.8460044653066179 0
15 -0.42773369435039404 -0.8291863275632714 0
16 0.18374093797144875 1.0392338483554142 0
17 0.46068597153714097 1.0380550957909187 0
18 1.1193778326022326 1.1490649125595147 0
19 0.22289481746010983 -0.6095807948165635 0
20 -0.665236742776815 -1.4678654743427961 0
21 1.028760756095891 -0.421317575671551 0
22 0.21565950949546556 0.4914055076946886 0
23 -0.25185959476936554 0.858462065447654 0
24 1.372540015977342 -0.816799181161845 0
25 -1.7634054250085986 0.2443689775902149 0
26 0.2923285435881682 0.6740809894495088 0
27 -0.15616879493489355 0.9248761877011576 0
28 -0.14762744940232045 -0.5673895371219285 0
29 -0.8167622337298333 -0.9058303387762128 0
30 0.8065088244468351 -1.0545001220322197 0
31 -0.40996642173415554 -0.490596209954014 0
32 0.6294843176623673 0.9051416234493955 0
33 1.1780681329987268 -1.0604546887846822 0
34 0.03100727995285289 0.1603113531708761 0
35 -0.6059288809259917 -0.27359610397893447 0
36 -0.13011026730829592 -0.018862973340965223 0
37 -0.13026791584359043 0.1501114947233813 0
38 -0.444957798441744 -0.9257470242097773 0
39 -0.24456123129235588 0.10197789836468864 0
40 -0.37705222907427544 1.2590349800452931 0
41 -0.6177547247741145 -0.45176655429667567 0
42 -0.9322710933808193 0.9296392959621044 0
43 0.17816489626078216 0.5164786520111461 0
