LAMMPS data file via write_data, version 23 Jun 2022, timestep = 0

43 atoms
3 atom types

0 6 xlo xhi
0 6 ylo yhi
-0.5 0.5 zlo zhi

Masses

1 1
2 1
3 1

Atoms # atomic

1 1 1.5813956007274776 4.515861426720331 0 0 0 0
2 1 0.9623207966621596 3.7256295009169866 0 0 0 0
3 1 4.953271488171663 5.633901701138309 0 0 0 0
4 1 5.870567436269749 2.626901385666291 0 0 0 0
5 1 1.0145305651307714 5.215208152874935 0 0 0 0
6 1 1.5701774682710772 1.9727092319972388 0 0 0 0
7 1 3.513018866774169 3.308093873461752 0 0 0 0
8 1 5.932636256298347 1.8175596063107067 0 0 0 0
9 1 2.38736354950227 2.4191764846533426 0 0 0 0
10 1 1.8773976694221597 5.4226299782388985 0 0 0 0
11 1 3.3378973842309305 0.04133676925736329 0 0 0 0
12 1 3.355530480554109 2.4007866729054537 0 0 0 0
13 1 3.4961187315621034 1.2675213642732805 0 0 0 0
14 1 1.8308432269053734 2.9821145986123545 0 0 0 0
15 1 2.5557602953891085 0.6632846047465152 0 0 0 0
16 1 5.883638466654177 0.3117090567535297 0 0 0 0
17 1 4.0686851432866815 0.3912032192531988 0 0 0 0
18 1 4.768148928307067 2.279038056861161 0 0 0 0
19 1 0.5923326912300347 1.3355415031945062 0 0 0 0
20 2 5.029881024281439 3.210375098143879 0 0 0 0
21 2 0.6649910680321004 4.504880415510796 0 0 0 0
22 2 5.590065001319193 4.2224771716736615 0 0 0 0
23 2 2.832979332112232 3.8836348102817477 0 0 0 0
24 2 2.0006088716912123 0.23330651420788212 0 0 0 0
25 2 3.3332093885788736 5.250193845131525 0 0 0 0
26 2 4.79518940616175 0.7483493605388093 0 0 0 0
27 2 4.401970230230116 3.91365947756621 0 0 0 0
28 2 1.7921799103693012 1.167753576844816 0 0 0 0
29 2 4.389880005451795 4.713251628313797 0 0 0 0
30 2 5.937144177936551 5.582198579601105 0 0 0 0
31 2 0.9104967466138754 2.7188203394034973 0 0 0 0
32 3 5.500862465938955 4.9954650360138455 0 0 0 0
33 3 4.095899070657743 1.7756805446816983 0 0 0 0
34 3 0.0034183636323634366 3.452437569132279 0 0 0 0
35 3 2.655417575806108 1.6031965732589346 0 0 0 0
36 3 0.8139855604683914 0.655314792252758 0 0 0 0
37 3 3.644442783503068 4.149862336064625 0 0 0 0
38 3 5.645210897384775 1.059552345918283 0 0 0 0
39 3 2.576049404487037 5.662341213627877 0 0 0 0
40 3 4.242496827730209 5.644183661623012 0 0 0 0
41 3 2.6201629948896183 3.0794551098157905 0 0 0 0
42 3 4.325161249528248 2.9851208212716136 0 0 0 0
43 3 1.3315882120894214 0.003080586904231732 0 0 0 0

Velocities

1 -0.4866032477551415 -0.27037955213450154 0
2 0.6612072015192522 -0.2242084001490353 0
3 0.3976829213411708 0.023413669583197166 0
4 -0.2122259742052694 -0.24803782987048828 0
5 -0.39441947866327065 0.5702763451150937 0
6 -0.39002783378701333 0.020275425294964126 0
7 -1.1195624923967358 0.516123473718477 0
8 -0.14822660951326183 -1.5837148098760776 0
9 0.5493134373523281 0.32029939122524953 0
10 1.7871273216624926 -0.46833450860898806 0
11 0.8437247146630066 0.1611428476756576 0
12 0.9398342596646031 -0.3193163805344068 0
13 1.039444027490052 1.1574686114039117 0
14 0.2770021661673932 0.3448821037565538 0
15 0.15204354485083227 0.6821786990435126 0
16 -0.41288811132674913 -0.4335949253971734 0
17 -0.7703108296242388 0.686814338269078 0
18 0.03807711465250945 -0.24532715902582206 0
19 0.4457651169113939 -1.5704541323889423 0
20 0.05359521811751126 0.12559834716923643 0
21 0.20595220240845158 -0.7604708609566687 0
22 0.9005597971315905 0.19077094771727518 0
23 0.2529387293051477 0.21659593221255438 0
24 -0.5394344356565455 0.8705305302047504 0
25 -0.7067776033031958 -0.3233331510282395 0
26 -0.5486671128386295 -0.8346527875601093 0
27 -0.27441886840107044 -0.7092048403238986 0
28 -0.42025932233705743 0.3957772125023818 0
29 0.6825269102379014 -0.1285803910390227 0
30 0.6909353386401625 0.30686625332634454 0
31 -0.5959540914420748 0.031704527701921593 0
32 0.2784962611784865 0.8566185658705309 0
33 0.7212248957492533 -0.5529862430760567 0
34 0.4064007793691577 -0.3750592412117678 0
35 -1.3308766367136027 -0.8078171086610582 0
36 -0.38714375849245614 -0.8086720127231952 0
37 -1.2014496669692074 -0.26289697537217127 0
38 -0.9775741353063813 -0.44840746073112003 0
39 1.2146368906858314 1.7788905022844954 0
40 -1.0214190777059866 -0.2789268654773895 0
41 -0.29260063259579555 1.2734699902259474 0
42 0.4860467017643596 0.3597000167469462 0
43 -0.7936956318292052 0.7649779050980544 0
