LAMMPS data file via write_data, version 23 Jun 2022, timestep = 0

43 atoms
3 atom types

0 6 xlo xhi
0 6 ylo yhi
-0.5 0.5 zlo zhi

Masses

1 1
2 1
3 1

Atoms # atomic

1 1 0.04140925036808907 5.965270936472933 0 0 0 0
2 1 1.1326549999102276 4.532583491193403 0 0 0 0
3 1 4.28814562796063 4.863569134317138 0 0 0 0
4 1 0.24460684240078873 1.1072002300560475 0 0 0 0
5 1 2.5051783986879412 2.5333467482278804 0 0 0 0
6 1 5.509010905171284 3.9462832137692176 0 0 0 0
7 1 5.433979966414151 2.901295522647582 0 0 0 0
8 1 5.182460800363897 5.618671716013305 0 0 0 0
9 1 2.0301155485353037 4.152024232853215 0 0 0 0
10 1 1.0292459712499966 0.5370387986940512 0 0 0 0
11 1 3.3423363647155164 2.6472817736897998 0 0 0 0
12 1 4.196187857629819 1.3293231843641602 0 0 0 0
13 1 2.0870719915661367 1.418962252055743 0 0 0 0
14 1 5.008322084792108 0.8692791009644416 0 0 0 0
15 1 4.495426746315987 2.6373253327968182 0 0 0 0
16 1 0.7094476487065887 1.6866318116367942 0 0 0 0
17 1 1.3157342417704567 3.5454014360650445 0 0 0 0
18 1 3.436841957008858 1.0027714478796215 0 0 0 0
19 1 4.268104525407825 4.032758529313262 0 0 0 0
20 2 3.48989467392205 4.659784607896482 0 0 0 0
21 2 5.770912418966606 1.72502557175468 0 0 0 0
22 2 5.974856707255755 3.416678847473431 0 0 0 0
23 2 4.193090397954495 3.2703184211954093 0 0 0 0
24 2 5.898184474510227 4.786463093378797 0 0 0 0
25 2 2.2501052358421054 5.518698798268428 0 0 0 0
26 2 3.196874830497836 5.875276177132165 0 0 0 0
27 2 1.0791764543760458 5.718668698202198 0 0 0 0
28 2 0.4731719291178379 2.60061268350138 0 0 0 0
29 2 2.1580510456850988 0.3639248294587828 0 0 0 0
30 2 2.7762277930864263 4.060518403565752 0 0 0 0
31 2 3.5175728721160318 1.8472616541419464 0 0 0 0
32 3 1.8850564462528827 2.1436921721993443 0 0 0 0
33 3 3.990826452146669 5.8201812290680515 0 0 0 0
34 3 5.150121973431726 2.1000074670184437 0 0 0 0
35 3 5.035331281384142 4.812846223270914 0 0 0 0
36 3 1.687813036929729 5.073711677954398 0 0 0 0
37 3 0.4225666301430048 4.077352813481052 0 0 0 0
38 3 1.6244909854719838 2.8199928276333925 0 0 0 0
39 3 2.238195814303214 3.357050994111715 0 0 0 0
40 3 3.448407589201074 3.3863517024490752 0 0 0 0
41 3 2.644548778722318 4.931323986002861 0 0 0 0
42 3 2.830996662765274 0.5609110959623527 0 0 0 0
43 3 4.37535291834518 0.5564986274375108 0 0 0 0

Velocities

1 0.7871406972173333 -0.4011858246080696 0
2 -0.3635812368583447 -1.3984113303868981 0
3 -0.7814212845883872 0.7259131561224776 0
4 0.6964424554003124 0.01762975927233492 0
5 0.10527488723204334 -0.6014897000484388 0
6 0.7228252668790774 -0.276046674754112 0
7 0.10862395573413634 0.18818973111868778 0
8 -0.18008669565757232 -0.48282263763730243 0
9 -0.5943252356349994 0.829725336236667 0
10 -0.29522784523762674 1.0432272107502685 0
11 -1.1286173553740098 -0.29668559943113626 0
12 0.6606003555186544 0.904262811887199 0
13 1.1124935944002579 -0.1709444662700123 0
14 0.06375465895545256 -0.37710414284819466 0
15 -0.906382140924714 0.7560755093292728 0
16 -0.7269379734663894 0.6114656793917896 0
17 -0.054855669798533735 -0.7572263805473642 0
18 0.8390416010678559 -0.10258936329418 0
19 0.5388025510998747 0.5709409539767853 0
20 -0.33359199156796976 -0.7463560342388881 0
21 0.02658633096202764 1.450236288234027 0
22 0.7951288170966503 0.8910269627441462 0
23 -0.017683261573294296 0.5809867599431712 0
24 -0.056774222949695176 0.9179537689923384 0
25 -0.46254794125771254 -0.43167859075706927 0
26 -1.063688493530579 -0.039669562443437244 0
27 -0.8241421711330723 -0.221022655096639 0
28 1.2818393678703928 -1.0562995219359628 0
29 -0.8258671678506323 -0.865456782477781 0
30 0.1911122729895014 -0.31611738972085374 0
31 -0.11772062558880092 0.43568724688345606 0
32 0.21713765242028937 0.8480924506821494 0
33 0.4986390817936766 -0.4655795648534368 0
34 -0.3269853117365185 -0.28908083089363246 0
35 0.6342547102687476 0.16331746663939817 0
36 -0.04047684954061466 -1.24076014874189 0
37 0.640444923516097 0.032176778019455315 0
38 -0.09621493742929552 -0.5453683345277167 0
39 -0.5972690349251709 1.3558550744738633 0
40 -1.545462336527786 -0.13613561710767463 0
41 1.491962085843588 -0.17993591230342784 0
42 -1.0217502915992014 -0.8217342292422224 0
43 0.9495048084849523 -0.10306165053114572 0
