LAMMPS data file via write_data, version 23 Jun 2022, timestep = 0

43 atoms
3 atom types

0 6 xlo xhi
0 6 ylo yhi
-0.5 0.5 zlo zhi

Masses

1 1
2 1
3 1

Atoms # atomic

1 1 1.388897306932554 3.197037615439406 0 0 0 0
2 1 2.483612572068168 0.07649874970153847 0 0 0 0
3 1 3.3701307556452837 1.7876101302856626 0 0 0 0
4 1 2.6673650008939975 4.403570025415891 0 0 0 0
5 1 5.418290099789523 3.201707162522575 0 0 0 0
6 1 5.958647699076053 0.9918783712163002 0 0 0 0
7 1 1.8870388082633904 5.461250482807518 0 0 0 0
8 1 1.9824239248328024 0.5989046649070944 0 0 0 0
9 1 1.3388643243065403 2.2926986200235313 0 0 0 0
10 1 3.573103360632948 5.148182157961736 0 0 0 0
11 1 1.0884522567915043 5.617079894811417 0 0 0 0
12 1 0.1772038378646615 2.264902991366062 0 0 0 0
13 1 2.446973169430612 2.27805862029924 0 0 0 0
14 1 0.005624254236754148 4.526840957126971 0 0 0 0
15 1 4.547839678147733 1.541470628949567 0 0 0 0
16 1 3.825338522822288 2.4645530741962385 0 0 0 0
17 1 5.0945855449394255 4.6992537969254204 0 0 0 0
18 1 4.400703668780952 0.6265612014693027 0 0 0 0
19 1 1.39878045646417 1.3031317933011484 0 0 0 0
20 2 4.752883406706566 3.711416517249968 0 0 0 0
21 2 1.1060034842723998 0.6005601662213729 0 0 0 0
22 2 0.4928636879161297 3.560002806391568 0 0 0 0
23 2 4.980411855960456 5.782063127393863 0 0 0 0
24 2 2.922570030634557 3.634504874998007 0 0 0 0
25 2 3.556776008362312 0.7343725453756622 0 0 0 0
26 2 5.613753972395209 0.3630140462718038 0 0 0 0
27 2 4.055003946672661 4.451331727416875 0 0 0 0
28 2 5.344311070323135 1.8361589209344977 0 0 0 0
29 2 0.3062820147286551 5.681821544506504 0 0 0 0
30 2 3.565301244876022 0.01802263130341779 0 0 0 0
31 2 1.2650681348820534 4.000142962671883 0 0 0 0
32 3 4.664999962162692 2.654364068365825 0 0 0 0
33 3 3.695098779022274 3.525179027358619 0 0 0 0
34 3 0.533441319378764 1.5482547988874162 0 0 0 0
35 3 1.9257330735799545 1.7957676582950017 0 0 0 0
36 3 5.494379343229523 4.033621658586721 0 0 0 0
37 3 2.625051295675827 1.2371264236220747 0 0 0 0
38 3 2.201068830770007 3.363838751504123 0 0 0 0
39 3 0.7377206910111572 2.8716538245192047 0 0 0 0
40 3 5.535865145519313 5.285500743093668 0 0 0 0
41 3 2.9414430618944776 2.8335412604890493 0 0 0 0
42 3 4.462380028545102 5.221139757531295 0 0 0 0
43 3 1.5553464310035792 4.707465877154593 0 0 0 0

Velocities

1 0.4238240458701375 -0.2065972821899338 0
2 0.1563919576333857 0.26878159934056367 0
3 -0.3419712399506075 -0.5796035658481145 0
4 0.4753396206994856 -1.6915663068080269 0
5 -0.2894063970454724 0.45657764421563846 0
6 -0.34961255805177877 0.2005755068673604 0
7 0.03142419444198699 -0.07288852685347917 0
8 0.9677929936086532 0.1541825771667924 0
9 -0.48482778612523625 0.670576296524864 0
10 -0.802570322539603 -1.0740454678753586 0
11 -0.20287170410329491 -1.430710162643012 0
12 -0.40081661378408034 0.8750812020829323 0
13 -1.6574986359357988 -0.6507437196076288 0
14 0.09281607508135639 1.4802952786360275 0
15 -0.6455700064039169 0.5007493629487384 0
16 0.3559362185737116 -0.7657194653282409 0
17 0.931141897662656 -0.11787485413346813 0
18 -0.1434720045334581 -0.1737783322217563 0
19 -0.3085528032260815 1.2439487106664464 0
20 0.23070184572556365 -1.7364287106771323 0
21 -0.011590314326148427 0.2958273994583789 0
22 0.2060024960522998 0.8813758344710811 0
23 1.0726790986555497 -0.09218641522497506 0
24 0.471092501018437 -0.05539662773770384 0
25 0.5221231527726737 1.2509990145456844 0
26 -0.5473034808340297 -0.35172442747830357 0
27 0.2154982151611346 -0.0426540228843937 0
28 -0.8598366105752309 0.4910509135050205 0
29 0.7137567182000257 -0.49237050138996175 0
30 0.6402515466308323 0.840073637196895 0
31 -0.217824279550031 -0.12418641758745542 0
32 -0.6531841338509843 -0.058162020204147256 0
33 0.3519468919411201 -0.011708766230625948 0
34 -1.0495484404180366 0.5841693000783662 0
35 -0.01722161134796358 0.6193940047401849 0
36 0.4518227328107126 0.07303771335124311 0
37 -0.3867994086068591 1.0124044601618447 0
38 1.1525270926181475 -0.338901446148905 0
39 0.2770862585459849 0.20446412525048793 0
40 0.3965591601765932 -0.8993011650174336 0
41 0.707857337991914 0.26911632316643974 0
42 0.14986690754059467 -1.3367607405118322 0
43 -1.6239606082043456 -0.06937195977310072 0
