LAMMPS data file via write_data, version 23 Jun 2022, timestep = 0

43 atoms
3 atom types

0 6 xlo xhi
0 6 ylo yhi
-0.5 0.5 zlo zhi

Masses

1 1
2 1
3 1

Atoms # atomic

1 1 1.003900719342707 0.559389992877557 0 0 0 0
2 1 5.526196122880185 4.778237247270642 0 0 0 0
3 1 0.20384929059252577 0.09502698858036986 0 0 0 0
4 1 2.260960130142495 1.9569073049150907 0 0 0 0
5 1 2.225809169107028 5.174705181817853 0 0 0 0
6 1 4.635078691241834 3.7675637014990504 0 0 0 0
7 1 3.228917885212655 4.422896769094699 0 0 0 0
8 1 4.1513204603229275 3.242976647449181 0 0 0 0
9 1 3.989392557176479 5.720708465073588 0 0 0 0
10 1 4.128069457657668 2.4633748524186085 0 0 0 0
11 1 0.6298585471836191 2.032602515086812 0 0 0 0
12 1 5.567173534802707 3.4855994291070846 0 0 0 0
13 1 3.24431742226906 5.242916076091545 0 0 0 0
14 1 2.080062046684354 3.6028186239315287 0 0 0 0
15 1 5.896895832334131 1.1282540397384455 0 0 0 0
16 1 2.439739751834301 0.7060090790996371 0 0 0 0
17 1 1.8413772898918843 0.028111212899960214 0 0 0 0
18 1 0.40785191972174306 2.767214763335518 0 0 0 0
19 1 5.3096765071664365 1.7330559462928474 0 0 0 0
20 2 1.6866160815985016 2.9564834260179116 0 0 0 0
21 2 3.9287827247422107 1.0512547423370437 0 0 0 0
22 2 5.170151721299696 2.739979884000486 0 0 0 0
23 2 1.592446243200659 4.244009473474701 0 0 0 0
24 2 2.77812497260893 5.946414638285718 0 0 0 0
25 2 5.14541011170736 0.9077474656085239 0 0 0 0
26 2 1.21456719618969 1.2308663601199474 0 0 0 0
27 2 2.5870228133103916 4.0924233077524335 0 0 0 0
28 2 4.870772379855985 5.071388239539875 0 0 0 0
29 2 0.5843676955366357 5.467858884235778 0 0 0 0
30 2 1.4339901830228 5.0730060641993795 0 0 0 0
31 2 3.9946635868375484 4.310903978678819 0 0 0 0
32 3 0.3329462820351805 3.828162165278644 0 0 0 0
33 3 5.706163172473276 5.484439758343827 0 0 0 0
34 3 3.0631908984217753 3.0494297747730417 0 0 0 0
35 3 3.357910561076324 0.4028000097734854 0 0 0 0
36 3 4.500656872289561 0.5400525706541038 0 0 0 0
37 3 5.154284197443298 0.054506429496457065 0 0 0 0
38 3 3.2441126551684514 1.8013954161672832 0 0 0 0
39 3 1.355270111633125 2.0247662179287365 0 0 0 0
40 3 1.0333643495260572 3.7546224844430673 0 0 0 0
41 3 4.035045604237842 5.011470425413675 0 0 0 0
42 3 4.580677298168036 1.443350310178171 0 0 0 0
43 3 0.36119848413448713 4.662922848324721 0 0 0 0

Velocities

1 0.9744863449847154 -1.0344090859226878 0
2 0.2337997552681592 1.0531964620071073 0
3 -1.064074906018272 -1.3407494259504558 0
4 0.2623634405764892 -0.1943358473646607 0
5 0.7722761364107584 0.5974203462959015 0
6 -0.6445872338332505 1.0781545247047033 0
7 0.2206575990672091 -0.6653650668239027 0
8 -0.3150557388045937 0.021623480660227783 0
9 -0.17100349781183755 0.04564557045854308 0
10 0.7864534763579771 -0.08583470008842022 0
11 -1.0428113447828917 -0.10415505230110907 0
12 1.0255671630348004 -0.5943473925240921 0
13 -0.14906308520125308 -0.5937510510757305 0
14 -0.23386257702557406 -0.3349030229706821 0
15 -0.9731683097803968 -0.4855061721620504 0
16 -0.12316391274788387 0.5689911489318689 0
17 -0.03418039829020841 0.17287536454532576 0
18 -0.984306183279679 0.3748543820551462 0
19 0.2184556900077815 0.3853398767128769 0
20 1.417748015032534 0.8921499781205203 0
21 -0.3334822582860277 0.12873883540803377 0
22 -0.13628663414993544 0.726470734391384 0
23 -1.083580157121271 -0.14290599166685927 0
24 -0.010401981140396388 0.2555403016736922 0
25 0.828852166932975 0.8045636845353825 0
26 -0.7257808393507158 0.3541757513261048 0
27 -0.10783463807750236 -0.1446223571471957 0
28 0.9656650853648625 -0.3868359911892356 0
29 -0.3080736960295894 -0.6295894647470135 0
30 -0.32148301526559453 0.21707105500233848 0
31 -0.6158935324719232 0.9644378332179289 0
32 0.6550608413263932 0.048021315764142807 0
33 0.5068872119056325 -1.7684058422281363 0
34 1.3902895296057278 0.8199820962302286 0
35 -1.579993064907663 0.8381572136003429 0
36 -1.10192726269908 0.36173036901202826 0
37 0.6258130485087552 -0.7691341364428724 0
38 -0.5611902444220727 1.1878764921150757 0
39 0.12375548307065613 -0.200516981599205 0
40 -0.0015096609580757677 -0.6163462180852467 0
41 0.4882782672729976 -0.3680615421992166 0
42 0.8288670359188521 -0.6378906782293151 0
43 0.29743788180841185 -0.799350796050815 0
