LAMMPS data file via write_data, version 23 Jun 2022, timestep = 0

43 atoms
3 atom types

0 6 xlo xhi
0 6 ylo yhi
-0.5 0.5 zlo zhi

Masses

1 1
2 1
3 1

Atoms # atomic

1 1 1.1963990131376305 1.8782138041584817 0 0 0 0
2 1 4.004904347474176 2.4273679984860905 0 0 0 0
3 1 1.7869900231189049 3.9413185594330162 0 0 0 0
4 1 5.4641625655182455 0.18023866516549078 0 0 0 0
5 1 3.8220496344482755 1.1882061721702135 0 0 0 0
6 1 4.347117929881028 0.011047510435361188 0 0 0 0
7 1 0.26105874975261223 1.6144070921532845 0 0 0 0
8 1 3.343364922024014 1.9342444576016835 0 0 0 0
9 1 2.745092392314734 2.767837633736356 0 0 0 0
10 1 3.547834154939202 0.44864206316351984 0 0 0 0
11 1 0.503989001970733 4.543156122110391 0 0 0 0
12 1 4.839007129352077 5.192823020365472 0 0 0 0
13 1 5.690668894765279 3.0721143200398027 0 0 0 0
14 1 2.786398894519731 1.0062201931170283 0 0 0 0
15 1 0.7671626483868633 5.702631438012529 0 0 0 0
16 1 3.407817166954194 5.183124999135325 0 0 0 0
17 1 4.728875769641658 2.2150603673490976 0 0 0 0
18 1 0.8169678360302783 2.7784201608870274 0 0 0 0
19 1 1.8856344874415707 5.858830430479175 0 0 0 0
20 2 2.0241905851402278 0.5711644518054856 0 0 0 0
21 2 1.547015900512699 2.6962399169319498 0 0 0 0
22 2 4.166754751543866 4.6471091977539984 0 0 0 0
23 2 2.0671206843420493 2.097341736823945 0 0 0 0
24 2 4.976039793796856 4.300814343756444 0 0 0 0
25 2 3.1603256758117704 3.5936333684221067 0 0 0 0
26 2 2.629865860859801 4.155523470675351 0 0 0 0
27 2 4.945152871750832 1.1843155162335912 0 0 0 0
28 2 0.6129821886368945 0.39164442028461227 0 0 0 0
29 2 5.670821369472342 5.494756721656191 0 0 0 0
30 2 2.132516865680235 3.21096148770813 0 0 0 0
31 2 4.977030828118805 2.957128192743812 0 0 0 0
32 3 5.7012632403994274 1.13128139317561 0 0 0 0
33 3 3.9507033489414973 3.4711856597434663 0 0 0 0
34 3 2.0026583308366397 4.678566371406692 0 0 0 0
35 3 3.437042935489231 4.3806167675091965 0 0 0 0
36 3 1.7550596547103763 1.2876167172974053 0 0 0 0
37 3 0.15294200002818462 2.496194473698826 0 0 0 0
38 3 0.1680102619193542 3.748472078586217 0 0 0 0
39 3 1.06414037899307 5.007349736526305 0 0 0 0
40 3 5.799998240452259 4.570427281116334 0 0 0 0
41 3 2.9219834063770174 5.775110978528443 0 0 0 0
42 3 1.0276464498730593 3.653883016507087 0 0 0 0
43 3 0.9457488185473479 1.200393325276856 0 0 0 0

Velocities

1 1.1754860006908805 -0.7206814620009967 0
2 -0.5363686233722951 -0.7181720820926336 0
3 -0.1833853208127457 -0.5242637321875494 0
4 1.221220249673433 -1.0097177383025404 0
5 0.014740129546122917 -0.9528121402469278 0
6 1.2498385766340454 -0.7868405104647903 0
7 0.24811192620889302 1.2803091617623863 0
8 0.002484940370476975 -0.8250418081742873 0
9 -0.8803545281203012 -0.07752269091443321 0
10 0.17067151563251265 -0.09267005623797077 0
11 1.264395284686094 -0.13437373819248205 0
12 -0.8516287725188411 0.940978438143719 0
13 -0.7923954078095307 0.04291244741417258 0
14 -1.1189522987598834 0.17376127449696038 0
15 -0.33746679703756854 -0.6393211672577978 0
16 0.7031415940285889 -0.14693014910831956 0
17 0.4300021065050695 0.5845042669007625 0
18 0.6267447846585781 -0.41494429186543486 0
19 -0.6276453946936967 -0.30754718693463645 0
20 0.757649343917579 0.13852440748571732 0
21 0.5113867951474739 0.6643264348389899 0
22 0.030058871461428646 0.03343083671889723 0
23 -0.022166403308032063 0.13476664943740232 0
24 0.3815437891868985 0.17888159353095728 0
25 -0.8618271010726791 0.16118745583734287 0
26 -0.3525684179403194 1.2217555779933928 0
27 -0.11941198479346986 0.04119099248683556 0
28 0.6079557521335056 1.371242199817399 0
29 -0.6823017720351358 0.0812552906063749 0
30 -0.09864395313811054 -0.1651319952995187 0
31 0.6507080888950278 1.2493520272545076 0
32 -0.1511601010038207 0.536873393434043 0
33 -0.22216871218852668 0.6413871336769928 0
34 -0.8300239744505876 0.5247309562921442 0
35 -1.584833083286698 -1.6822134887968387 0
36 -0.5964025762764424 0.24821577680963686 0
37 0.8769224845974458 0.06884687262443998 0
38 0.2863870982814642 0.3797202228323649 0
39 -0.3925826311317158 -0.9860378230281583 0
40 -1.2336016300096035 -0.1044437808249079 0
41 -0.41475092437779115 0.04933576495067286 0
42 0.15476797764642145 -0.20235685762935843 0
43 1.5264230982358573 -0.2564664757865328 0
