LAMMPS data file via write_data, version 23 Jun 2022, timestep = 0

43 atoms
3 atom types

0 6 xlo xhi
0 6 ylo yhi
-0.5 0.5 zlo zhi

Masses

1 1
2 1
3 1

Atoms # atomic

1 1 0.8114024255477835 5.240566181596632 0 0 0 0
2 1 1.0474878982861935 1.1291064960551944 0 0 0 0
3 1 4.620708558066147 2.2487354177277235 0 0 0 0
4 1 5.057757694766744 3.7335759446646906 0 0 0 0
5 1 0.62956870376578 3.1612041914654916 0 0 0 0
6 1 1.1240583914909783 4.049385788873483 0 0 0 0
7 1 3.009098632731055 5.920720310844816 0 0 0 0
8 1 0.06524691640643726 4.604924042990861 0 0 0 0
9 1 3.669930301452954 0.5185765198052752 0 0 0 0
10 1 4.708304760376134 4.478107641673697 0 0 0 0
11 1 3.192508549053459 4.491183941481255 0 0 0 0
12 1 5.721301236060122 1.9098744624805983 0 0 0 0
13 1 1.7030025179046218 2.3633184229784265 0 0 0 0
14 1 5.99711835477367 5.568188681066124 0 0 0 0
15 1 3.561910974589135 3.0377499195922866 0 0 0 0
16 1 4.936561085719877 0.7821676939642837 0 0 0 0
17 1 4.112316855281739 1.7093867201867452 0 0 0 0
18 1 2.8657867437534903 3.2778022649128933 0 0 0 0
19 1 0.9540334665002457 2.4404714696297756 0 0 0 0
20 2 4.2598878491017445 3.93507985302018 0 0 0 0
21 2 2.4290407329932977 0.8875994183531029 0 0 0 0
22 2 4.800590841472424 1.5302726270306262 0 0 0 0
23 2 3.358360275327396 1.9611474275408067 0 0 0 0
24 2 0.8311040749918222 0.3661883875570206 0 0 0 0
25 2 3.837308157159625 5.63819738181224 0 0 0 0
26 2 1.338560483110398 3.1860396364638763 0 0 0 0
27 2 1.63400303462241 0.6890028988425633 0 0 0 0
28 2 4.5436523251904415 3.16462947575591 0 0 0 0
29 2 2.009446702901948 4.770735673033975 0 0 0 0
30 2 4.709800030435343 5.609111526798975 0 0 0 0
31 2 5.465742428538269 2.7329964426965434 0 0 0 0
32 3 2.3934028839661754 1.9222708195085967 0 0 0 0
33 3 5.2831009036317 5.076887337992381 0 0 0 0
34 3 1.8638365379831923 5.500693883514355 0 0 0 0
35 3 5.852074239334126 3.811740488657607 0 0 0 0
36 3 2.166454962532248 3.608555279489865 0 0 0 0
37 3 0.01720437315162475 1.1538995593571568 0 0 0 0
38 3 5.358123418576142 5.980296009211008 0 0 0 0
39 3 3.0887817121524277 1.1542361458550374 0 0 0 0
40 3 0.11569068493120871 0.4133416388245959 0 0 0 0
41 3 2.6845461477919232 5.167105938851417 0 0 0 0
42 3 1.7290163998161518 1.5786317100648914 0 0 0 0
43 3 3.986835403361747 4.742624300877854 0 0 0 0

Velocities

1 -0.23410838747182458 -1.7382800810533543 0
2 0.036172243502276984 0.4753687576284593 0
3 -0.03284235390849728 0.7864028700092822 0
4 -0.027242160945447683 -0.0869513355952244 0
5 -1.6101176659550727 0.09855514889727199 0
6 -1.09619056887156 -0.40175726413918916 0
7 0.08500917620245237 -0.23936157968700122 0
8 0.48790384381186447 0.6357643267945208 0
9 0.13826916010876078 -0.9740502676326798 0
10 -0.1595011920988539 -0.36831605724927097 0
11 0.18747969574628812 -0.24164083350313859 0
12 0.29707271886303604 0.8720985236576256 0
13 0.6675435696883604 -0.7036340034606738 0
14 0.36048322198758304 0.31152253551180414 0
15 -1.008391468327919 -0.10322893429566106 0
16 0.29355132744124146 -0.054068361023696526 0
17 0.7479757061750136 -0.42179993107045494 0
18 0.41802694032008525 1.6089985091307453 0
19 -1.0887019784880596 -0.8063570429148665 0
20 0.872672796144752 -0.4303218382613633 0
21 -0.23044944005814083 0.06295584386191537 0
22 0.7514041292771876 2.260563953587022 0
23 -0.8315228879827417 -0.03920940206489191 0
24 0.310665403816459 -0.9036297973285842 0
25 -0.009177517411827485 0.24096879172215813 0
26 -0.45754870874232695 1.0604050476143712 0
27 0.6543751316857629 0.07485108591346085 0
28 -0.19792915701197059 -0.9783723226147778 0
29 0.08194143305228968 -1.6946413976586316 0
30 -0.23828754452186762 -0.005148115735031872 0
31 -0.47826358395408036 0.8086306957765714 0
32 0.1036080257469208 -0.48143870850540754 0
33 0.014929477005811702 -0.09315701937516939 0
34 1.2792888594881136 0.7801000247360763 0
35 0.034569308064634194 0.16517659883105487 0
36 -0.9822913673850419 0.30771918151740074 0
37 -0.49389015332972963 0.0012442094994023585 0
38 0.8083120255035909 0.5272410477801505 0
39 -0.01209979018268495 -0.672042728651831 0
40 1.0584986238107388 -0.2053350372094603 0
41 -0.12187882757214943 -0.579613333045203 0
42 0.5906204824118682 0.3364970366650864 0
43 -0.9699385456352968 0.8072912029411828 0
